 TITLE = "Nacelle surface mesh"
 VARIABLES = "X", "Y", "Z", "ub_x", "ub_y", "ub_z", "color", "F_lagr_x", "F_lagr_y", "F_lagr_z", "nf_x", "nf_y", "nf_z"
 ZONE T="Triangles", NODES=         824 , ELEMENTS=        1644 , ZONETYPE=FETRIANGLE, VARLOCATION=([1-6]=NODAL,[7-13]=CELLCENTERED)
 STRANDID=0.1 SOLUTIONTIME=  0.13622582005699999     
  0.75000000000000000     
  0.74938065490895756     
  0.74876554057289446     
  0.74815885884644395     
  0.74756475398096489     
  0.74698728431510275     
  0.74643039455222193     
  0.74589788881408181     
  0.74539340465482751     
  0.74492038821280693     
  0.74448207066995153     
  0.74408144617952710     
  0.74372125141303103     
  0.74340394686595135     
  0.74313170005008711     
  0.74290637068724519     
  0.74272949800545507     
  0.74260229022447954     
  0.74252561630244995     
  0.74250000000000005     
  0.75000000000000000     
  0.75000000000000000     
  0.75000000000000000     
  0.75000000000000000     
  0.75000000000000000     
  0.75000000000000000     
  0.75000000000000000     
  0.75000000000000000     
  0.75000000000000000     
  0.75000000000000000     
  0.75000000000000000     
  0.75000000000000000     
  0.75000000000000000     
  0.75000000000000000     
  0.75000000000000000     
  0.75000000000000000     
  0.75000000000000000     
  0.75000000000000000     
  0.75000000000000000     
  0.75000000000000000     
  0.75000000000000000     
  0.75000000000000000     
  0.75000000000000000     
  0.75000000000000000     
  0.75000000000000000     
  0.75000000000000000     
  0.75000000000000000     
  0.75000000000000000     
  0.75000000000000000     
  0.75000000000000000     
  0.75000000000000000     
  0.75000000000000000     
  0.75000000000000000     
  0.75000000000000000     
  0.75000000000000000     
  0.75000000000000000     
  0.75000000000000000     
  0.75000000000000000     
  0.75000000000000000     
  0.75000000000000000     
  0.75000000000000000     
  0.75000000000000000     
  0.75000000000000000     
  0.75000000000000000     
  0.75000000000000000     
  0.75000000000000000     
  0.75000000000000000     
  0.75000000000000000     
  0.75000000000000000     
  0.75000000000000000     
  0.75000000000000000     
  0.75000000000000000     
  0.75000000000000000     
  0.75000000000000000     
  0.75000000000000000     
  0.75000000000000000     
  0.75000000000000000     
  0.75000000000000000     
  0.75000000000000000     
  0.75000000000000000     
  0.75000000000000000     
  0.75000000000000000     
  0.75000000000000000     
  0.75000000000000000     
  0.75000000000000000     
  0.75000000000000000     
  0.75000000000000000     
  0.75000000000000000     
  0.75000000000000000     
  0.75000000000000000     
  0.75000000000000000     
  0.75000000000000000     
  0.75000000000000000     
  0.75000000000000000     
  0.75000000000000000     
  0.75000000000000000     
  0.75000000000000000     
  0.75000000000000000     
  0.75000000000000000     
  0.75000000000000000     
  0.75000000000000000     
  0.75000000000000000     
  0.75000000000000000     
  0.75000000000000000     
  0.75000000000000000     
  0.75000000000000000     
  0.75000000000000000     
  0.75000000000000000     
  0.75000000000000000     
  0.75000000000000000     
  0.75000000000000000     
  0.75000000000000000     
  0.75000000000000000     
  0.75000000000000000     
  0.75000000000000000     
  0.75000000000000000     
  0.75000000000000000     
  0.75000000000000000     
  0.75000000000000000     
  0.75000000000000000     
  0.75000000000000000     
  0.75000000000000000     
  0.75000000000000000     
  0.75000000000000000     
  0.75000000000000000     
  0.75000000000000000     
  0.75000000000000000     
  0.75000000000000000     
  0.75000000000000000     
  0.75000000000000000     
  0.75000000000000000     
  0.75000000000000000     
  0.75000000000000000     
  0.75000000000000000     
  0.75000000000000000     
  0.75000000000000000     
  0.75000000000000000     
  0.75000000000000000     
  0.75000000000000000     
  0.75000000000000000     
  0.75000000000000000     
  0.75000000000000000     
  0.75000000000000000     
  0.75000000000000000     
  0.75000000000000000     
  0.75000000000000000     
  0.75000000000000000     
  0.75000000000000000     
  0.75000000000000000     
  0.75000000000000000     
  0.75000000000000000     
  0.75000000000000000     
  0.75000000000000000     
  0.75000000000000000     
  0.75000000000000000     
  0.75000000000000000     
  0.75000000000000000     
  0.75000000000000000     
  0.75000000000000000     
  0.75000000000000000     
  0.75000000000000000     
  0.75000000000000000     
  0.75000000000000000     
  0.75000000000000000     
  0.75000000000000000     
  0.75000000000000000     
  0.75000000000000000     
  0.75000000000000000     
  0.75000000000000000     
  0.75000000000000000     
  0.75000000000000000     
  0.75000000000000000     
  0.75000000000000000     
  0.75000000000000000     
  0.75000000000000000     
  0.75000000000000000     
  0.75000000000000000     
  0.75000000000000000     
  0.75000000000000000     
  0.75000000000000000     
  0.75000000000000000     
  0.75000000000000000     
  0.75000000000000000     
  0.75000000000000000     
  0.75000000000000000     
  0.75000000000000000     
  0.75000000000000000     
  0.75000000000000000     
  0.75000000000000000     
  0.75000000000000000     
  0.75000000000000000     
  0.75000000000000000     
  0.75000000000000000     
  0.75000000000000000     
  0.74938065490895756     
  0.74876554057289446     
  0.74815885884644395     
  0.74756475398096489     
  0.74698728431510275     
  0.74643039455222193     
  0.74589788881408181     
  0.74539340465482751     
  0.74492038821280693     
  0.74448207066995153     
  0.74408144617952710     
  0.74372125141303103     
  0.74340394686595135     
  0.74313170005008711     
  0.74290637068724519     
  0.74272949800545507     
  0.74260229022447954     
  0.74252561630244995     
  0.74938065490895756     
  0.74876554057289446     
  0.74815885884644395     
  0.74756475398096489     
  0.74698728431510275     
  0.74643039455222193     
  0.74589788881408181     
  0.74539340465482751     
  0.74492038821280693     
  0.74448207066995153     
  0.74408144617952710     
  0.74372125141303103     
  0.74340394686595135     
  0.74313170005008711     
  0.74290637068724519     
  0.74272949800545507     
  0.74260229022447954     
  0.74252561630244995     
  0.74938065490895756     
  0.74876554057289446     
  0.74815885884644395     
  0.74756475398096489     
  0.74698728431510275     
  0.74643039455222193     
  0.74589788881408181     
  0.74539340465482751     
  0.74492038821280693     
  0.74448207066995153     
  0.74408144617952710     
  0.74372125141303103     
  0.74340394686595135     
  0.74313170005008711     
  0.74290637068724519     
  0.74272949800545507     
  0.74260229022447954     
  0.74252561630244995     
  0.74938065490895756     
  0.74876554057289446     
  0.74815885884644395     
  0.74756475398096489     
  0.74698728431510275     
  0.74643039455222193     
  0.74589788881408181     
  0.74539340465482751     
  0.74492038821280693     
  0.74448207066995153     
  0.74408144617952710     
  0.74372125141303103     
  0.74340394686595135     
  0.74313170005008711     
  0.74290637068724519     
  0.74272949800545507     
  0.74260229022447954     
  0.74252561630244995     
  0.74938065490895756     
  0.74876554057289446     
  0.74815885884644395     
  0.74756475398096489     
  0.74698728431510275     
  0.74643039455222193     
  0.74589788881408181     
  0.74539340465482751     
  0.74492038821280693     
  0.74448207066995153     
  0.74408144617952710     
  0.74372125141303103     
  0.74340394686595135     
  0.74313170005008711     
  0.74290637068724519     
  0.74272949800545507     
  0.74260229022447954     
  0.74252561630244995     
  0.74938065490895756     
  0.74876554057289446     
  0.74815885884644395     
  0.74756475398096489     
  0.74698728431510275     
  0.74643039455222193     
  0.74589788881408181     
  0.74539340465482751     
  0.74492038821280693     
  0.74448207066995153     
  0.74408144617952710     
  0.74372125141303103     
  0.74340394686595135     
  0.74313170005008711     
  0.74290637068724519     
  0.74272949800545507     
  0.74260229022447954     
  0.74252561630244995     
  0.74938065490895756     
  0.74876554057289446     
  0.74815885884644395     
  0.74756475398096489     
  0.74698728431510275     
  0.74643039455222193     
  0.74589788881408181     
  0.74539340465482751     
  0.74492038821280693     
  0.74448207066995153     
  0.74408144617952710     
  0.74372125141303103     
  0.74340394686595135     
  0.74313170005008711     
  0.74290637068724519     
  0.74272949800545507     
  0.74260229022447954     
  0.74252561630244995     
  0.74938065490895756     
  0.74876554057289446     
  0.74815885884644395     
  0.74756475398096489     
  0.74698728431510275     
  0.74643039455222193     
  0.74589788881408181     
  0.74539340465482751     
  0.74492038821280693     
  0.74448207066995153     
  0.74408144617952710     
  0.74372125141303103     
  0.74340394686595135     
  0.74313170005008711     
  0.74290637068724519     
  0.74272949800545507     
  0.74260229022447954     
  0.74252561630244995     
  0.74938065490895756     
  0.74876554057289446     
  0.74815885884644395     
  0.74756475398096489     
  0.74698728431510275     
  0.74643039455222193     
  0.74589788881408181     
  0.74539340465482751     
  0.74492038821280693     
  0.74448207066995153     
  0.74408144617952710     
  0.74372125141303103     
  0.74340394686595135     
  0.74313170005008711     
  0.74290637068724519     
  0.74272949800545507     
  0.74260229022447954     
  0.74252561630244995     
  0.74938065490895756     
  0.74876554057289446     
  0.74815885884644395     
  0.74756475398096489     
  0.74698728431510275     
  0.74643039455222193     
  0.74589788881408181     
  0.74539340465482751     
  0.74492038821280693     
  0.74448207066995153     
  0.74408144617952710     
  0.74372125141303103     
  0.74340394686595135     
  0.74313170005008711     
  0.74290637068724519     
  0.74272949800545507     
  0.74260229022447954     
  0.74252561630244995     
  0.74938065490895756     
  0.74876554057289446     
  0.74815885884644395     
  0.74756475398096489     
  0.74698728431510275     
  0.74643039455222193     
  0.74589788881408181     
  0.74539340465482751     
  0.74492038821280693     
  0.74448207066995153     
  0.74408144617952710     
  0.74372125141303103     
  0.74340394686595135     
  0.74313170005008711     
  0.74290637068724519     
  0.74272949800545507     
  0.74260229022447954     
  0.74252561630244995     
  0.74938065490895756     
  0.74876554057289446     
  0.74815885884644395     
  0.74756475398096489     
  0.74698728431510275     
  0.74643039455222193     
  0.74589788881408181     
  0.74539340465482751     
  0.74492038821280693     
  0.74448207066995153     
  0.74408144617952710     
  0.74372125141303103     
  0.74340394686595135     
  0.74313170005008711     
  0.74290637068724519     
  0.74272949800545507     
  0.74260229022447954     
  0.74252561630244995     
  0.74938065490895756     
  0.74876554057289446     
  0.74815885884644395     
  0.74756475398096489     
  0.74698728431510275     
  0.74643039455222193     
  0.74589788881408181     
  0.74539340465482751     
  0.74492038821280693     
  0.74448207066995153     
  0.74408144617952710     
  0.74372125141303103     
  0.74340394686595135     
  0.74313170005008711     
  0.74290637068724519     
  0.74272949800545507     
  0.74260229022447954     
  0.74252561630244995     
  0.74938065490895756     
  0.74876554057289446     
  0.74815885884644395     
  0.74756475398096489     
  0.74698728431510275     
  0.74643039455222193     
  0.74589788881408181     
  0.74539340465482751     
  0.74492038821280693     
  0.74448207066995153     
  0.74408144617952710     
  0.74372125141303103     
  0.74340394686595135     
  0.74313170005008711     
  0.74290637068724519     
  0.74272949800545507     
  0.74260229022447954     
  0.74252561630244995     
  0.74938065490895756     
  0.74876554057289446     
  0.74815885884644395     
  0.74756475398096489     
  0.74698728431510275     
  0.74643039455222193     
  0.74589788881408181     
  0.74539340465482751     
  0.74492038821280693     
  0.74448207066995153     
  0.74408144617952710     
  0.74372125141303103     
  0.74340394686595135     
  0.74313170005008711     
  0.74290637068724519     
  0.74272949800545507     
  0.74260229022447954     
  0.74252561630244995     
  0.74938065490895756     
  0.74876554057289446     
  0.74815885884644395     
  0.74756475398096489     
  0.74698728431510275     
  0.74643039455222193     
  0.74589788881408181     
  0.74539340465482751     
  0.74492038821280693     
  0.74448207066995153     
  0.74408144617952710     
  0.74372125141303103     
  0.74340394686595135     
  0.74313170005008711     
  0.74290637068724519     
  0.74272949800545507     
  0.74260229022447954     
  0.74252561630244995     
  0.74938065490895756     
  0.74876554057289446     
  0.74815885884644395     
  0.74756475398096489     
  0.74698728431510275     
  0.74643039455222193     
  0.74589788881408181     
  0.74539340465482751     
  0.74492038821280693     
  0.74448207066995153     
  0.74408144617952710     
  0.74372125141303103     
  0.74340394686595135     
  0.74313170005008711     
  0.74290637068724519     
  0.74272949800545507     
  0.74260229022447954     
  0.74252561630244995     
  0.74938065490895756     
  0.74876554057289446     
  0.74815885884644395     
  0.74756475398096489     
  0.74698728431510275     
  0.74643039455222193     
  0.74589788881408181     
  0.74539340465482751     
  0.74492038821280693     
  0.74448207066995153     
  0.74408144617952710     
  0.74372125141303103     
  0.74340394686595135     
  0.74313170005008711     
  0.74290637068724519     
  0.74272949800545507     
  0.74260229022447954     
  0.74252561630244995     
  0.74938065490895756     
  0.74876554057289446     
  0.74815885884644395     
  0.74756475398096489     
  0.74698728431510275     
  0.74643039455222193     
  0.74589788881408181     
  0.74539340465482751     
  0.74492038821280693     
  0.74448207066995153     
  0.74408144617952710     
  0.74372125141303103     
  0.74340394686595135     
  0.74313170005008711     
  0.74290637068724519     
  0.74272949800545507     
  0.74260229022447954     
  0.74252561630244995     
  0.74938065490895756     
  0.74876554057289446     
  0.74815885884644395     
  0.74756475398096489     
  0.74698728431510275     
  0.74643039455222193     
  0.74589788881408181     
  0.74539340465482751     
  0.74492038821280693     
  0.74448207066995153     
  0.74408144617952710     
  0.74372125141303103     
  0.74340394686595135     
  0.74313170005008711     
  0.74290637068724519     
  0.74272949800545507     
  0.74260229022447954     
  0.74252561630244995     
  0.74938065490895756     
  0.74876554057289446     
  0.74815885884644395     
  0.74756475398096489     
  0.74698728431510275     
  0.74643039455222193     
  0.74589788881408181     
  0.74539340465482751     
  0.74492038821280693     
  0.74448207066995153     
  0.74408144617952710     
  0.74372125141303103     
  0.74340394686595135     
  0.74313170005008711     
  0.74290637068724519     
  0.74272949800545507     
  0.74260229022447954     
  0.74252561630244995     
  0.74938065490895756     
  0.74876554057289446     
  0.74815885884644395     
  0.74756475398096489     
  0.74698728431510275     
  0.74643039455222193     
  0.74589788881408181     
  0.74539340465482751     
  0.74492038821280693     
  0.74448207066995153     
  0.74408144617952710     
  0.74372125141303103     
  0.74340394686595135     
  0.74313170005008711     
  0.74290637068724519     
  0.74272949800545507     
  0.74260229022447954     
  0.74252561630244995     
  0.74938065490895756     
  0.74876554057289446     
  0.74815885884644395     
  0.74756475398096489     
  0.74698728431510275     
  0.74643039455222193     
  0.74589788881408181     
  0.74539340465482751     
  0.74492038821280693     
  0.74448207066995153     
  0.74408144617952710     
  0.74372125141303103     
  0.74340394686595135     
  0.74313170005008711     
  0.74290637068724519     
  0.74272949800545507     
  0.74260229022447954     
  0.74252561630244995     
  0.74938065490895756     
  0.74876554057289446     
  0.74815885884644395     
  0.74756475398096489     
  0.74698728431510275     
  0.74643039455222193     
  0.74589788881408181     
  0.74539340465482751     
  0.74492038821280693     
  0.74448207066995153     
  0.74408144617952710     
  0.74372125141303103     
  0.74340394686595135     
  0.74313170005008711     
  0.74290637068724519     
  0.74272949800545507     
  0.74260229022447954     
  0.74252561630244995     
  0.74938065490895756     
  0.74876554057289446     
  0.74815885884644395     
  0.74756475398096489     
  0.74698728431510275     
  0.74643039455222193     
  0.74589788881408181     
  0.74539340465482751     
  0.74492038821280693     
  0.74448207066995153     
  0.74408144617952710     
  0.74372125141303103     
  0.74340394686595135     
  0.74313170005008711     
  0.74290637068724519     
  0.74272949800545507     
  0.74260229022447954     
  0.74252561630244995     
  0.74938065490895756     
  0.74876554057289446     
  0.74815885884644395     
  0.74756475398096489     
  0.74698728431510275     
  0.74643039455222193     
  0.74589788881408181     
  0.74539340465482751     
  0.74492038821280693     
  0.74448207066995153     
  0.74408144617952710     
  0.74372125141303103     
  0.74340394686595135     
  0.74313170005008711     
  0.74290637068724519     
  0.74272949800545507     
  0.74260229022447954     
  0.74252561630244995     
  0.74938065490895756     
  0.74876554057289446     
  0.74815885884644395     
  0.74756475398096489     
  0.74698728431510275     
  0.74643039455222193     
  0.74589788881408181     
  0.74539340465482751     
  0.74492038821280693     
  0.74448207066995153     
  0.74408144617952710     
  0.74372125141303103     
  0.74340394686595135     
  0.74313170005008711     
  0.74290637068724519     
  0.74272949800545507     
  0.74260229022447954     
  0.74252561630244995     
  0.74938065490895756     
  0.74876554057289446     
  0.74815885884644395     
  0.74756475398096489     
  0.74698728431510275     
  0.74643039455222193     
  0.74589788881408181     
  0.74539340465482751     
  0.74492038821280693     
  0.74448207066995153     
  0.74408144617952710     
  0.74372125141303103     
  0.74340394686595135     
  0.74313170005008711     
  0.74290637068724519     
  0.74272949800545507     
  0.74260229022447954     
  0.74252561630244995     
  0.74938065490895756     
  0.74876554057289446     
  0.74815885884644395     
  0.74756475398096489     
  0.74698728431510275     
  0.74643039455222193     
  0.74589788881408181     
  0.74539340465482751     
  0.74492038821280693     
  0.74448207066995153     
  0.74408144617952710     
  0.74372125141303103     
  0.74340394686595135     
  0.74313170005008711     
  0.74290637068724519     
  0.74272949800545507     
  0.74260229022447954     
  0.74252561630244995     
  0.74938065490895756     
  0.74876554057289446     
  0.74815885884644395     
  0.74756475398096489     
  0.74698728431510275     
  0.74643039455222193     
  0.74589788881408181     
  0.74539340465482751     
  0.74492038821280693     
  0.74448207066995153     
  0.74408144617952710     
  0.74372125141303103     
  0.74340394686595135     
  0.74313170005008711     
  0.74290637068724519     
  0.74272949800545507     
  0.74260229022447954     
  0.74252561630244995     
  0.74938065490895756     
  0.74876554057289446     
  0.74815885884644395     
  0.74756475398096489     
  0.74698728431510275     
  0.74643039455222193     
  0.74589788881408181     
  0.74539340465482751     
  0.74492038821280693     
  0.74448207066995153     
  0.74408144617952710     
  0.74372125141303103     
  0.74340394686595135     
  0.74313170005008711     
  0.74290637068724519     
  0.74272949800545507     
  0.74260229022447954     
  0.74252561630244995     
  0.74938065490895756     
  0.74876554057289446     
  0.74815885884644395     
  0.74756475398096489     
  0.74698728431510275     
  0.74643039455222193     
  0.74589788881408181     
  0.74539340465482751     
  0.74492038821280693     
  0.74448207066995153     
  0.74408144617952710     
  0.74372125141303103     
  0.74340394686595135     
  0.74313170005008711     
  0.74290637068724519     
  0.74272949800545507     
  0.74260229022447954     
  0.74252561630244995     
  0.74938065490895756     
  0.74876554057289446     
  0.74815885884644395     
  0.74756475398096489     
  0.74698728431510275     
  0.74643039455222193     
  0.74589788881408181     
  0.74539340465482751     
  0.74492038821280693     
  0.74448207066995153     
  0.74408144617952710     
  0.74372125141303103     
  0.74340394686595135     
  0.74313170005008711     
  0.74290637068724519     
  0.74272949800545507     
  0.74260229022447954     
  0.74252561630244995     
  0.74938065490895756     
  0.74876554057289446     
  0.74815885884644395     
  0.74756475398096489     
  0.74698728431510275     
  0.74643039455222193     
  0.74589788881408181     
  0.74539340465482751     
  0.74492038821280693     
  0.74448207066995153     
  0.74408144617952710     
  0.74372125141303103     
  0.74340394686595135     
  0.74313170005008711     
  0.74290637068724519     
  0.74272949800545507     
  0.74260229022447954     
  0.74252561630244995     
  0.74938065490895756     
  0.74876554057289446     
  0.74815885884644395     
  0.74756475398096489     
  0.74698728431510275     
  0.74643039455222193     
  0.74589788881408181     
  0.74539340465482751     
  0.74492038821280693     
  0.74448207066995153     
  0.74408144617952710     
  0.74372125141303103     
  0.74340394686595135     
  0.74313170005008711     
  0.74290637068724519     
  0.74272949800545507     
  0.74260229022447954     
  0.74252561630244995     
  0.36749999999999999     
  0.36747438369755003     
  0.36739770977552039     
  0.36727050199454497     
  0.36709362931275474     
  0.36686829994991293     
  0.36659605313404864     
  0.36627874858696896     
  0.36591855382047295     
  0.36551792933004845     
  0.36507961178719306     
  0.36460659534517248     
  0.36410211118591818     
  0.36356960544777805     
  0.36301271568489724     
  0.36243524601903510     
  0.36184114115355598     
  0.36123445942710547     
  0.36061934509104249     
  0.35999999999999999     
  0.36738605814759157     
  0.36704769465589432     
  0.36649519052838325     
  0.36574533332339232     
  0.36482090707264903     
  0.36374999999999996     
  0.36256515107494253     
  0.36130236133250199     
  0.35999999999999999     
  0.35869763866749799     
  0.35743484892505745     
  0.35625000000000001     
  0.35517909292735095     
  0.35425466667660765     
  0.35350480947161672     
  0.35295230534410565     
  0.35261394185240841     
  0.35249999999999998     
  0.35261394185240841     
  0.35295230534410565     
  0.35350480947161672     
  0.35425466667660765     
  0.35517909292735095     
  0.35625000000000001     
  0.35743484892505745     
  0.35869763866749799     
  0.35999999999999999     
  0.36130236133250199     
  0.36256515107494247     
  0.36374999999999996     
  0.36482090707264903     
  0.36574533332339232     
  0.36649519052838325     
  0.36704769465589426     
  0.36738605814759151     
  0.35944200158022027     
  0.35879255535447341     
  0.35839184823755982     
  0.36579690097455625     
  0.36531878333266976     
  0.36493243767385763     
  0.36606940400952520     
  0.36560520442092248     
  0.36526966582903975     
  0.36369118191655186     
  0.36283561694888122     
  0.36040624008853328     
  0.36113205193529935     
  0.36154830474808025     
  0.36039726476366035     
  0.35934551159665573     
  0.35836244857218846     
  0.35884302428348330     
  0.36164344771243989     
  0.35746935139346991     
  0.35630007860750335     
  0.35592661250952451     
  0.35751290695190518     
  0.35672472438451580     
  0.35471366728676773     
  0.35402794737616416     
  0.35357151388599423     
  0.35460236640650239     
  0.35372208553176121     
  0.35346595617164084     
  0.35430860447693535     
  0.35556744897186832     
  0.35661491322600575     
  0.35524205175066031     
  0.35572517977705170     
  0.35689145126542904     
  0.35642372315509357     
  0.35576444620255282     
  0.35715702729624915     
  0.35625273413829128     
  0.36484299198441550     
  0.36590005139286852     
  0.36622438818477882     
  0.36656756236665922     
  0.36506687973917790     
  0.36408444066545254     
  0.36420499711718157     
  0.36373323324320012     
  0.36263264864821093     
  0.36309997889358214     
  0.36374192405634620     
  0.36256703355346231     
  0.35833473714167785     
  0.35958023866769995     
  0.36068545253709500     
  0.36166743971076404     
  0.36126821885340155     
  0.35470497973838472     
  0.35519743179426827     
  0.36227622739777182     
  0.36295694078816265     
  0.36209263112288453     
  0.36320985236917291     
  0.36096995549905864     
  0.36122596488720110     
  0.35747948539077545     
  0.35789924214081587     
  0.35752627507294393     
  0.35450879571996868     
  0.35894971201614312     
  0.35796234430350715     
  0.35837562880585261     
  0.35697741604709199     
  0.36062496634759034     
  0.36155746801156885     
  0.36069215609928590     
  0.36247961096298015     
  0.36115730455880479     
  0.36223571088299134     
  0.36436182728644684     
  0.35867644586760039     
  0.35875751638565090     
  0.35852751506818664     
  0.36147674739345798     
  0.36018015324443525     
  0.36415585356731733     
  0.36475296564950205     
  0.36451892048825285     
  0.36333766178530957     
  0.36302860663292552     
  0.36004930068657715     
  0.35988459009350149     
  0.35890025959906746     
  0.35757620658067074     
  0.35709082325138025     
  0.35949111916086651     
  0.35898747238271334     
  0.35832012809145114     
  0.36029358550994572     
  0.36047387331507902     
  0.35955335006850481     
  0.35635181555408835     
  0.35678965801043216     
  0.35566565682176832     
  0.35976848049220345     
  0.35995530931082537     
  0.35926673083529692     
  0.36492112964338907     
  0.36620221812594778     
  0.36204930706837302     
  0.36145067134550712     
  0.36109384868349337     
  0.35738853564271456     
  0.36331697075457803     
  0.36325047104201585     
  0.36387685081627674     
  0.36297234928691441     
  0.35811789763826907     
  0.35409415775536968     
  0.35505773485476694     
  0.36531564149558249     
  0.36051700327140718     
  0.35553414308139275     
  0.35758215374445351     
  0.36203984696500557     
  0.36203443277965597     
  0.36420973771831905     
  0.36243728327242236     
  0.35955050576478614     
  0.35572526906223700     
  0.35526662177232915     
  0.36489548602524846     
  0.36268969506173537     
  0.35784911426544563     
  0.36374572072018357     
  0.35798259181860281     
  0.35971982381643658     
  0.35489767717235299     
  0.35519991980832749     
  0.36736083101433531     
  0.36728532194146668     
  0.36716004673251862     
  0.36698586114419551     
  0.36676395504068759     
  0.36649584426569159     
  0.36618336028766146     
  0.36582863768902180     
  0.36543409958480522     
  0.36500244107031993     
  0.36453661081091582     
  0.36403979089961036     
  0.36351537512016641     
  0.36296694576410832     
  0.36239824916003788     
  0.36181317008241176     
  0.36121570521459251     
  0.36060993584744866     
  0.36702362320551024     
  0.36695157328677230     
  0.36683203707368311     
  0.36666583111978623     
  0.36645409078027741     
  0.36619826245637727     
  0.36590009371494470     
  0.36556162135082265     
  0.36518515747346469     
  0.36477327371288243     
  0.36432878365280530     
  0.36385472361105065     
  0.36335433189839422     
  0.36283102669762390     
  0.36228838271388553     
  0.36173010675582179     
  0.36116001241431062     
  0.36058199401177260     
  0.36647300615971057     
  0.36640660459542512     
  0.36629643942554135     
  0.36614326318987556     
  0.36594812223743595     
  0.36571234957879811     
  0.36543755578029075     
  0.36512561796219500     
  0.36477866697610922     
  0.36439907284907203     
  0.36398942859387451     
  0.36355253249615344     
  0.36309136899926309     
  0.36260908831750088     
  0.36210898491694932     
  0.36159447501093245     
  0.36106907322381454     
  0.36053636858255195     
  0.36572571009724725     
  0.36566697446534435     
  0.36556952765160661     
  0.36543403531658164     
  0.36526142301030512     
  0.36505286984985547     
  0.36480980046478872     
  0.36453387526547387     
  0.36422697910080687     
  0.36389120838278088     
  0.36352885676586716     
  0.36314239947902882     
  0.36273447641739759     
  0.36230787410911292     
  0.36186550668050943     
  0.36141039594967922     
  0.36094565078439000     
  0.36047444586536609     
  0.36480444123082822     
  0.36475515618376148     
  0.36467338859829479     
  0.36455969702994800     
  0.36441485810741470     
  0.36423986122740054     
  0.36403590179604051     
  0.36380437306306296     